
             +---------------------------------------------------+
             |                                                   |
             |                   WANNIER90                       |
             |                                                   |
             +---------------------------------------------------+
             |                                                   |
             |        Welcome to the Maximally-Localized         |
             |        Generalized Wannier Functions code         |
             |            http://www.wannier.org                 |
             |                                                   |
             |                                                   |
             |  Wannier90 Developer Group:                       |
             |    Giovanni Pizzi    (EPFL)                       |
             |    Valerio Vitale    (Cambridge)                  |
             |    David Vanderbilt  (Rutgers University)         |
             |    Nicola Marzari    (EPFL)                       |
             |    Ivo Souza         (Universidad del Pais Vasco) |
             |    Arash A. Mostofi  (Imperial College London)    |
             |    Jonathan R. Yates (University of Oxford)       |
             |                                                   |
             |  For the full list of Wannier90 3.x authors,      |
             |  please check the code documentation and the      |
             |  README on the GitHub page of the code            |
             |                                                   |
             |                                                   |
             |  Please cite                                      |
             |                                                   |
             |  [ref] "Wannier90 as a community code:            |
             |        new features and applications",            |
             |        G. Pizzi et al., J. Phys. Cond. Matt. 32,  |
             |        165902 (2020).                             |
             |        http://doi.org/10.1088/1361-648X/ab51ff    |
             |                                                   |
             |  in any publications arising from the use of      |
             |  this code. For the method please cite            |
             |                                                   |
             |  [ref] "Maximally Localized Generalised Wannier   |
             |         Functions for Composite Energy Bands"     |
             |         N. Marzari and D. Vanderbilt              |
             |         Phys. Rev. B 56 12847 (1997)              |
             |                                                   |
             |  [ref] "Maximally Localized Wannier Functions     |
             |         for Entangled Energy Bands"               |
             |         I. Souza, N. Marzari and D. Vanderbilt    |
             |         Phys. Rev. B 65 035109 (2001)             |
             |                                                   |
             |                                                   |
             | Copyright (c) 1996-2020                           |
             |        The Wannier90 Developer Group and          |
             |        individual contributors                    |
             |                                                   |
             |      Release: 3.1.0        5th March    2020      |
             |                                                   |
             | This program is free software; you can            |
             | redistribute it and/or modify it under the terms  |
             | of the GNU General Public License as published by |
             | the Free Software Foundation; either version 2 of |
             | the License, or (at your option) any later version|
             |                                                   |
             | This program is distributed in the hope that it   |
             | will be useful, but WITHOUT ANY WARRANTY; without |
             | even the implied warranty of MERCHANTABILITY or   |
             | FITNESS FOR A PARTICULAR PURPOSE. See the GNU     |
             | General Public License for more details.          |
             |                                                   |
             | You should have received a copy of the GNU General|
             | Public License along with this program; if not,   |
             | write to the Free Software Foundation, Inc.,      |
             | 675 Mass Ave, Cambridge, MA 02139, USA.           |
             |                                                   |
             +---------------------------------------------------+
             |    Execution started on 22Mar2021 at 16:15:56     |
             +---------------------------------------------------+
 
 ******************************************************************************
 * -> Using CODATA 2006 constant values                                       *
 *    (http://physics.nist.gov/cuu/Constants/index.html)                      *
 * -> Using Bohr value from CODATA                                            *
 ******************************************************************************
 

 Running in serial (with parallel executable)

                                    ------
                                    SYSTEM
                                    ------

                              Lattice Vectors (Ang)
                    a_1     3.858560   0.000000   0.000000
                    a_2     0.000000   3.858560   0.000000
                    a_3     0.000000   0.000000  19.292799

                   Unit Cell Volume:     287.24051  (Ang^3)

                        Reciprocal-Space Vectors (Ang^-1)
                    b_1     1.628376   0.000000   0.000000
                    b_2     0.000000   1.628376   0.000000
                    b_3     0.000000   0.000000   0.325675
  
 *----------------------------------------------------------------------------*
 |   Site       Fractional Coordinate          Cartesian Coordinate (Ang)     |
 +----------------------------------------------------------------------------+
 | Sr   1   0.00000   0.00000  -0.10000   |    0.00000   0.00000  -1.92928    |
 | Sr   2   0.00000   0.00000   0.10000   |    0.00000   0.00000   1.92928    |
 | O    1   0.50000   0.50000  -0.10000   |    1.92928   1.92928  -1.92928    |
 | O    2   0.50000   0.00000   0.00000   |    1.92928   0.00000   0.00000    |
 | O    3   0.00000   0.50000   0.00000   |    0.00000   1.92928   0.00000    |
 | O    4   0.50000   0.50000   0.10000   |    1.92928   1.92928   1.92928    |
 | V    1   0.50000   0.50000   0.00000   |    1.92928   1.92928   0.00000    |
 *----------------------------------------------------------------------------*
                                -----------
                                PROJECTIONS
                                -----------
  
 +----------------------------------------------------------------------------+
 |     Frac. Coord.   l mr  r        z-axis               x-axis          Z/a |
 +----------------------------------------------------------------------------+
 |  0.50  0.50  0.00  2  5  1  0.000  0.000  1.000  1.000  0.000  0.000   1.0 |
 +----------------------------------------------------------------------------+
  
                                ------------
                                K-POINT GRID
                                ------------
  
             Grid size = 17 x 17 x  1      Total points =  289
  
 *----------------------------------------------------------------------------*
 | k-point      Fractional Coordinate        Cartesian Coordinate (Ang^-1)    |
 +----------------------------------------------------------------------------+
 |     1    0.00000   0.00000   0.00000   |    0.00000   0.00000   0.00000    |
 |     2    0.00000   0.05882   0.00000   |    0.00000   0.09579   0.00000    |
 |     3    0.00000   0.11765   0.00000   |    0.00000   0.19157   0.00000    |
 |     4    0.00000   0.17647   0.00000   |    0.00000   0.28736   0.00000    |
 |     5    0.00000   0.23529   0.00000   |    0.00000   0.38315   0.00000    |
 |     6    0.00000   0.29412   0.00000   |    0.00000   0.47893   0.00000    |
 |     7    0.00000   0.35294   0.00000   |    0.00000   0.57472   0.00000    |
 |     8    0.00000   0.41176   0.00000   |    0.00000   0.67051   0.00000    |
 |     9    0.00000   0.47059   0.00000   |    0.00000   0.76629   0.00000    |
 |    10    0.00000   0.52941   0.00000   |    0.00000   0.86208   0.00000    |
 |    11    0.00000   0.58824   0.00000   |    0.00000   0.95787   0.00000    |
 |    12    0.00000   0.64706   0.00000   |    0.00000   1.05365   0.00000    |
 |    13    0.00000   0.70588   0.00000   |    0.00000   1.14944   0.00000    |
 |    14    0.00000   0.76471   0.00000   |    0.00000   1.24523   0.00000    |
 |    15    0.00000   0.82353   0.00000   |    0.00000   1.34102   0.00000    |
 |    16    0.00000   0.88235   0.00000   |    0.00000   1.43680   0.00000    |
 |    17    0.00000   0.94118   0.00000   |    0.00000   1.53259   0.00000    |
 |    18    0.05882   0.00000   0.00000   |    0.09579   0.00000   0.00000    |
 |    19    0.05882   0.05882   0.00000   |    0.09579   0.09579   0.00000    |
 |    20    0.05882   0.11765   0.00000   |    0.09579   0.19157   0.00000    |
 |    21    0.05882   0.17647   0.00000   |    0.09579   0.28736   0.00000    |
 |    22    0.05882   0.23529   0.00000   |    0.09579   0.38315   0.00000    |
 |    23    0.05882   0.29412   0.00000   |    0.09579   0.47893   0.00000    |
 |    24    0.05882   0.35294   0.00000   |    0.09579   0.57472   0.00000    |
 |    25    0.05882   0.41176   0.00000   |    0.09579   0.67051   0.00000    |
 |    26    0.05882   0.47059   0.00000   |    0.09579   0.76629   0.00000    |
 |    27    0.05882   0.52941   0.00000   |    0.09579   0.86208   0.00000    |
 |    28    0.05882   0.58824   0.00000   |    0.09579   0.95787   0.00000    |
 |    29    0.05882   0.64706   0.00000   |    0.09579   1.05365   0.00000    |
 |    30    0.05882   0.70588   0.00000   |    0.09579   1.14944   0.00000    |
 |    31    0.05882   0.76471   0.00000   |    0.09579   1.24523   0.00000    |
 |    32    0.05882   0.82353   0.00000   |    0.09579   1.34102   0.00000    |
 |    33    0.05882   0.88235   0.00000   |    0.09579   1.43680   0.00000    |
 |    34    0.05882   0.94118   0.00000   |    0.09579   1.53259   0.00000    |
 |    35    0.11765   0.00000   0.00000   |    0.19157   0.00000   0.00000    |
 |    36    0.11765   0.05882   0.00000   |    0.19157   0.09579   0.00000    |
 |    37    0.11765   0.11765   0.00000   |    0.19157   0.19157   0.00000    |
 |    38    0.11765   0.17647   0.00000   |    0.19157   0.28736   0.00000    |
 |    39    0.11765   0.23529   0.00000   |    0.19157   0.38315   0.00000    |
 |    40    0.11765   0.29412   0.00000   |    0.19157   0.47893   0.00000    |
 |    41    0.11765   0.35294   0.00000   |    0.19157   0.57472   0.00000    |
 |    42    0.11765   0.41176   0.00000   |    0.19157   0.67051   0.00000    |
 |    43    0.11765   0.47059   0.00000   |    0.19157   0.76629   0.00000    |
 |    44    0.11765   0.52941   0.00000   |    0.19157   0.86208   0.00000    |
 |    45    0.11765   0.58824   0.00000   |    0.19157   0.95787   0.00000    |
 |    46    0.11765   0.64706   0.00000   |    0.19157   1.05365   0.00000    |
 |    47    0.11765   0.70588   0.00000   |    0.19157   1.14944   0.00000    |
 |    48    0.11765   0.76471   0.00000   |    0.19157   1.24523   0.00000    |
 |    49    0.11765   0.82353   0.00000   |    0.19157   1.34102   0.00000    |
 |    50    0.11765   0.88235   0.00000   |    0.19157   1.43680   0.00000    |
 |    51    0.11765   0.94118   0.00000   |    0.19157   1.53259   0.00000    |
 |    52    0.17647   0.00000   0.00000   |    0.28736   0.00000   0.00000    |
 |    53    0.17647   0.05882   0.00000   |    0.28736   0.09579   0.00000    |
 |    54    0.17647   0.11765   0.00000   |    0.28736   0.19157   0.00000    |
 |    55    0.17647   0.17647   0.00000   |    0.28736   0.28736   0.00000    |
 |    56    0.17647   0.23529   0.00000   |    0.28736   0.38315   0.00000    |
 |    57    0.17647   0.29412   0.00000   |    0.28736   0.47893   0.00000    |
 |    58    0.17647   0.35294   0.00000   |    0.28736   0.57472   0.00000    |
 |    59    0.17647   0.41176   0.00000   |    0.28736   0.67051   0.00000    |
 |    60    0.17647   0.47059   0.00000   |    0.28736   0.76629   0.00000    |
 |    61    0.17647   0.52941   0.00000   |    0.28736   0.86208   0.00000    |
 |    62    0.17647   0.58824   0.00000   |    0.28736   0.95787   0.00000    |
 |    63    0.17647   0.64706   0.00000   |    0.28736   1.05365   0.00000    |
 |    64    0.17647   0.70588   0.00000   |    0.28736   1.14944   0.00000    |
 |    65    0.17647   0.76471   0.00000   |    0.28736   1.24523   0.00000    |
 |    66    0.17647   0.82353   0.00000   |    0.28736   1.34102   0.00000    |
 |    67    0.17647   0.88235   0.00000   |    0.28736   1.43680   0.00000    |
 |    68    0.17647   0.94118   0.00000   |    0.28736   1.53259   0.00000    |
 |    69    0.23529   0.00000   0.00000   |    0.38315   0.00000   0.00000    |
 |    70    0.23529   0.05882   0.00000   |    0.38315   0.09579   0.00000    |
 |    71    0.23529   0.11765   0.00000   |    0.38315   0.19157   0.00000    |
 |    72    0.23529   0.17647   0.00000   |    0.38315   0.28736   0.00000    |
 |    73    0.23529   0.23529   0.00000   |    0.38315   0.38315   0.00000    |
 |    74    0.23529   0.29412   0.00000   |    0.38315   0.47893   0.00000    |
 |    75    0.23529   0.35294   0.00000   |    0.38315   0.57472   0.00000    |
 |    76    0.23529   0.41176   0.00000   |    0.38315   0.67051   0.00000    |
 |    77    0.23529   0.47059   0.00000   |    0.38315   0.76629   0.00000    |
 |    78    0.23529   0.52941   0.00000   |    0.38315   0.86208   0.00000    |
 |    79    0.23529   0.58824   0.00000   |    0.38315   0.95787   0.00000    |
 |    80    0.23529   0.64706   0.00000   |    0.38315   1.05365   0.00000    |
 |    81    0.23529   0.70588   0.00000   |    0.38315   1.14944   0.00000    |
 |    82    0.23529   0.76471   0.00000   |    0.38315   1.24523   0.00000    |
 |    83    0.23529   0.82353   0.00000   |    0.38315   1.34102   0.00000    |
 |    84    0.23529   0.88235   0.00000   |    0.38315   1.43680   0.00000    |
 |    85    0.23529   0.94118   0.00000   |    0.38315   1.53259   0.00000    |
 |    86    0.29412   0.00000   0.00000   |    0.47893   0.00000   0.00000    |
 |    87    0.29412   0.05882   0.00000   |    0.47893   0.09579   0.00000    |
 |    88    0.29412   0.11765   0.00000   |    0.47893   0.19157   0.00000    |
 |    89    0.29412   0.17647   0.00000   |    0.47893   0.28736   0.00000    |
 |    90    0.29412   0.23529   0.00000   |    0.47893   0.38315   0.00000    |
 |    91    0.29412   0.29412   0.00000   |    0.47893   0.47893   0.00000    |
 |    92    0.29412   0.35294   0.00000   |    0.47893   0.57472   0.00000    |
 |    93    0.29412   0.41176   0.00000   |    0.47893   0.67051   0.00000    |
 |    94    0.29412   0.47059   0.00000   |    0.47893   0.76629   0.00000    |
 |    95    0.29412   0.52941   0.00000   |    0.47893   0.86208   0.00000    |
 |    96    0.29412   0.58824   0.00000   |    0.47893   0.95787   0.00000    |
 |    97    0.29412   0.64706   0.00000   |    0.47893   1.05365   0.00000    |
 |    98    0.29412   0.70588   0.00000   |    0.47893   1.14944   0.00000    |
 |    99    0.29412   0.76471   0.00000   |    0.47893   1.24523   0.00000    |
 |   100    0.29412   0.82353   0.00000   |    0.47893   1.34102   0.00000    |
 |   101    0.29412   0.88235   0.00000   |    0.47893   1.43680   0.00000    |
 |   102    0.29412   0.94118   0.00000   |    0.47893   1.53259   0.00000    |
 |   103    0.35294   0.00000   0.00000   |    0.57472   0.00000   0.00000    |
 |   104    0.35294   0.05882   0.00000   |    0.57472   0.09579   0.00000    |
 |   105    0.35294   0.11765   0.00000   |    0.57472   0.19157   0.00000    |
 |   106    0.35294   0.17647   0.00000   |    0.57472   0.28736   0.00000    |
 |   107    0.35294   0.23529   0.00000   |    0.57472   0.38315   0.00000    |
 |   108    0.35294   0.29412   0.00000   |    0.57472   0.47893   0.00000    |
 |   109    0.35294   0.35294   0.00000   |    0.57472   0.57472   0.00000    |
 |   110    0.35294   0.41176   0.00000   |    0.57472   0.67051   0.00000    |
 |   111    0.35294   0.47059   0.00000   |    0.57472   0.76629   0.00000    |
 |   112    0.35294   0.52941   0.00000   |    0.57472   0.86208   0.00000    |
 |   113    0.35294   0.58824   0.00000   |    0.57472   0.95787   0.00000    |
 |   114    0.35294   0.64706   0.00000   |    0.57472   1.05365   0.00000    |
 |   115    0.35294   0.70588   0.00000   |    0.57472   1.14944   0.00000    |
 |   116    0.35294   0.76471   0.00000   |    0.57472   1.24523   0.00000    |
 |   117    0.35294   0.82353   0.00000   |    0.57472   1.34102   0.00000    |
 |   118    0.35294   0.88235   0.00000   |    0.57472   1.43680   0.00000    |
 |   119    0.35294   0.94118   0.00000   |    0.57472   1.53259   0.00000    |
 |   120    0.41176   0.00000   0.00000   |    0.67051   0.00000   0.00000    |
 |   121    0.41176   0.05882   0.00000   |    0.67051   0.09579   0.00000    |
 |   122    0.41176   0.11765   0.00000   |    0.67051   0.19157   0.00000    |
 |   123    0.41176   0.17647   0.00000   |    0.67051   0.28736   0.00000    |
 |   124    0.41176   0.23529   0.00000   |    0.67051   0.38315   0.00000    |
 |   125    0.41176   0.29412   0.00000   |    0.67051   0.47893   0.00000    |
 |   126    0.41176   0.35294   0.00000   |    0.67051   0.57472   0.00000    |
 |   127    0.41176   0.41176   0.00000   |    0.67051   0.67051   0.00000    |
 |   128    0.41176   0.47059   0.00000   |    0.67051   0.76629   0.00000    |
 |   129    0.41176   0.52941   0.00000   |    0.67051   0.86208   0.00000    |
 |   130    0.41176   0.58824   0.00000   |    0.67051   0.95787   0.00000    |
 |   131    0.41176   0.64706   0.00000   |    0.67051   1.05365   0.00000    |
 |   132    0.41176   0.70588   0.00000   |    0.67051   1.14944   0.00000    |
 |   133    0.41176   0.76471   0.00000   |    0.67051   1.24523   0.00000    |
 |   134    0.41176   0.82353   0.00000   |    0.67051   1.34102   0.00000    |
 |   135    0.41176   0.88235   0.00000   |    0.67051   1.43680   0.00000    |
 |   136    0.41176   0.94118   0.00000   |    0.67051   1.53259   0.00000    |
 |   137    0.47059   0.00000   0.00000   |    0.76629   0.00000   0.00000    |
 |   138    0.47059   0.05882   0.00000   |    0.76629   0.09579   0.00000    |
 |   139    0.47059   0.11765   0.00000   |    0.76629   0.19157   0.00000    |
 |   140    0.47059   0.17647   0.00000   |    0.76629   0.28736   0.00000    |
 |   141    0.47059   0.23529   0.00000   |    0.76629   0.38315   0.00000    |
 |   142    0.47059   0.29412   0.00000   |    0.76629   0.47893   0.00000    |
 |   143    0.47059   0.35294   0.00000   |    0.76629   0.57472   0.00000    |
 |   144    0.47059   0.41176   0.00000   |    0.76629   0.67051   0.00000    |
 |   145    0.47059   0.47059   0.00000   |    0.76629   0.76629   0.00000    |
 |   146    0.47059   0.52941   0.00000   |    0.76629   0.86208   0.00000    |
 |   147    0.47059   0.58824   0.00000   |    0.76629   0.95787   0.00000    |
 |   148    0.47059   0.64706   0.00000   |    0.76629   1.05365   0.00000    |
 |   149    0.47059   0.70588   0.00000   |    0.76629   1.14944   0.00000    |
 |   150    0.47059   0.76471   0.00000   |    0.76629   1.24523   0.00000    |
 |   151    0.47059   0.82353   0.00000   |    0.76629   1.34102   0.00000    |
 |   152    0.47059   0.88235   0.00000   |    0.76629   1.43680   0.00000    |
 |   153    0.47059   0.94118   0.00000   |    0.76629   1.53259   0.00000    |
 |   154    0.52941   0.00000   0.00000   |    0.86208   0.00000   0.00000    |
 |   155    0.52941   0.05882   0.00000   |    0.86208   0.09579   0.00000    |
 |   156    0.52941   0.11765   0.00000   |    0.86208   0.19157   0.00000    |
 |   157    0.52941   0.17647   0.00000   |    0.86208   0.28736   0.00000    |
 |   158    0.52941   0.23529   0.00000   |    0.86208   0.38315   0.00000    |
 |   159    0.52941   0.29412   0.00000   |    0.86208   0.47893   0.00000    |
 |   160    0.52941   0.35294   0.00000   |    0.86208   0.57472   0.00000    |
 |   161    0.52941   0.41176   0.00000   |    0.86208   0.67051   0.00000    |
 |   162    0.52941   0.47059   0.00000   |    0.86208   0.76629   0.00000    |
 |   163    0.52941   0.52941   0.00000   |    0.86208   0.86208   0.00000    |
 |   164    0.52941   0.58824   0.00000   |    0.86208   0.95787   0.00000    |
 |   165    0.52941   0.64706   0.00000   |    0.86208   1.05365   0.00000    |
 |   166    0.52941   0.70588   0.00000   |    0.86208   1.14944   0.00000    |
 |   167    0.52941   0.76471   0.00000   |    0.86208   1.24523   0.00000    |
 |   168    0.52941   0.82353   0.00000   |    0.86208   1.34102   0.00000    |
 |   169    0.52941   0.88235   0.00000   |    0.86208   1.43680   0.00000    |
 |   170    0.52941   0.94118   0.00000   |    0.86208   1.53259   0.00000    |
 |   171    0.58824   0.00000   0.00000   |    0.95787   0.00000   0.00000    |
 |   172    0.58824   0.05882   0.00000   |    0.95787   0.09579   0.00000    |
 |   173    0.58824   0.11765   0.00000   |    0.95787   0.19157   0.00000    |
 |   174    0.58824   0.17647   0.00000   |    0.95787   0.28736   0.00000    |
 |   175    0.58824   0.23529   0.00000   |    0.95787   0.38315   0.00000    |
 |   176    0.58824   0.29412   0.00000   |    0.95787   0.47893   0.00000    |
 |   177    0.58824   0.35294   0.00000   |    0.95787   0.57472   0.00000    |
 |   178    0.58824   0.41176   0.00000   |    0.95787   0.67051   0.00000    |
 |   179    0.58824   0.47059   0.00000   |    0.95787   0.76629   0.00000    |
 |   180    0.58824   0.52941   0.00000   |    0.95787   0.86208   0.00000    |
 |   181    0.58824   0.58824   0.00000   |    0.95787   0.95787   0.00000    |
 |   182    0.58824   0.64706   0.00000   |    0.95787   1.05365   0.00000    |
 |   183    0.58824   0.70588   0.00000   |    0.95787   1.14944   0.00000    |
 |   184    0.58824   0.76471   0.00000   |    0.95787   1.24523   0.00000    |
 |   185    0.58824   0.82353   0.00000   |    0.95787   1.34102   0.00000    |
 |   186    0.58824   0.88235   0.00000   |    0.95787   1.43680   0.00000    |
 |   187    0.58824   0.94118   0.00000   |    0.95787   1.53259   0.00000    |
 |   188    0.64706   0.00000   0.00000   |    1.05365   0.00000   0.00000    |
 |   189    0.64706   0.05882   0.00000   |    1.05365   0.09579   0.00000    |
 |   190    0.64706   0.11765   0.00000   |    1.05365   0.19157   0.00000    |
 |   191    0.64706   0.17647   0.00000   |    1.05365   0.28736   0.00000    |
 |   192    0.64706   0.23529   0.00000   |    1.05365   0.38315   0.00000    |
 |   193    0.64706   0.29412   0.00000   |    1.05365   0.47893   0.00000    |
 |   194    0.64706   0.35294   0.00000   |    1.05365   0.57472   0.00000    |
 |   195    0.64706   0.41176   0.00000   |    1.05365   0.67051   0.00000    |
 |   196    0.64706   0.47059   0.00000   |    1.05365   0.76629   0.00000    |
 |   197    0.64706   0.52941   0.00000   |    1.05365   0.86208   0.00000    |
 |   198    0.64706   0.58824   0.00000   |    1.05365   0.95787   0.00000    |
 |   199    0.64706   0.64706   0.00000   |    1.05365   1.05365   0.00000    |
 |   200    0.64706   0.70588   0.00000   |    1.05365   1.14944   0.00000    |
 |   201    0.64706   0.76471   0.00000   |    1.05365   1.24523   0.00000    |
 |   202    0.64706   0.82353   0.00000   |    1.05365   1.34102   0.00000    |
 |   203    0.64706   0.88235   0.00000   |    1.05365   1.43680   0.00000    |
 |   204    0.64706   0.94118   0.00000   |    1.05365   1.53259   0.00000    |
 |   205    0.70588   0.00000   0.00000   |    1.14944   0.00000   0.00000    |
 |   206    0.70588   0.05882   0.00000   |    1.14944   0.09579   0.00000    |
 |   207    0.70588   0.11765   0.00000   |    1.14944   0.19157   0.00000    |
 |   208    0.70588   0.17647   0.00000   |    1.14944   0.28736   0.00000    |
 |   209    0.70588   0.23529   0.00000   |    1.14944   0.38315   0.00000    |
 |   210    0.70588   0.29412   0.00000   |    1.14944   0.47893   0.00000    |
 |   211    0.70588   0.35294   0.00000   |    1.14944   0.57472   0.00000    |
 |   212    0.70588   0.41176   0.00000   |    1.14944   0.67051   0.00000    |
 |   213    0.70588   0.47059   0.00000   |    1.14944   0.76629   0.00000    |
 |   214    0.70588   0.52941   0.00000   |    1.14944   0.86208   0.00000    |
 |   215    0.70588   0.58824   0.00000   |    1.14944   0.95787   0.00000    |
 |   216    0.70588   0.64706   0.00000   |    1.14944   1.05365   0.00000    |
 |   217    0.70588   0.70588   0.00000   |    1.14944   1.14944   0.00000    |
 |   218    0.70588   0.76471   0.00000   |    1.14944   1.24523   0.00000    |
 |   219    0.70588   0.82353   0.00000   |    1.14944   1.34102   0.00000    |
 |   220    0.70588   0.88235   0.00000   |    1.14944   1.43680   0.00000    |
 |   221    0.70588   0.94118   0.00000   |    1.14944   1.53259   0.00000    |
 |   222    0.76471   0.00000   0.00000   |    1.24523   0.00000   0.00000    |
 |   223    0.76471   0.05882   0.00000   |    1.24523   0.09579   0.00000    |
 |   224    0.76471   0.11765   0.00000   |    1.24523   0.19157   0.00000    |
 |   225    0.76471   0.17647   0.00000   |    1.24523   0.28736   0.00000    |
 |   226    0.76471   0.23529   0.00000   |    1.24523   0.38315   0.00000    |
 |   227    0.76471   0.29412   0.00000   |    1.24523   0.47893   0.00000    |
 |   228    0.76471   0.35294   0.00000   |    1.24523   0.57472   0.00000    |
 |   229    0.76471   0.41176   0.00000   |    1.24523   0.67051   0.00000    |
 |   230    0.76471   0.47059   0.00000   |    1.24523   0.76629   0.00000    |
 |   231    0.76471   0.52941   0.00000   |    1.24523   0.86208   0.00000    |
 |   232    0.76471   0.58824   0.00000   |    1.24523   0.95787   0.00000    |
 |   233    0.76471   0.64706   0.00000   |    1.24523   1.05365   0.00000    |
 |   234    0.76471   0.70588   0.00000   |    1.24523   1.14944   0.00000    |
 |   235    0.76471   0.76471   0.00000   |    1.24523   1.24523   0.00000    |
 |   236    0.76471   0.82353   0.00000   |    1.24523   1.34102   0.00000    |
 |   237    0.76471   0.88235   0.00000   |    1.24523   1.43680   0.00000    |
 |   238    0.76471   0.94118   0.00000   |    1.24523   1.53259   0.00000    |
 |   239    0.82353   0.00000   0.00000   |    1.34102   0.00000   0.00000    |
 |   240    0.82353   0.05882   0.00000   |    1.34102   0.09579   0.00000    |
 |   241    0.82353   0.11765   0.00000   |    1.34102   0.19157   0.00000    |
 |   242    0.82353   0.17647   0.00000   |    1.34102   0.28736   0.00000    |
 |   243    0.82353   0.23529   0.00000   |    1.34102   0.38315   0.00000    |
 |   244    0.82353   0.29412   0.00000   |    1.34102   0.47893   0.00000    |
 |   245    0.82353   0.35294   0.00000   |    1.34102   0.57472   0.00000    |
 |   246    0.82353   0.41176   0.00000   |    1.34102   0.67051   0.00000    |
 |   247    0.82353   0.47059   0.00000   |    1.34102   0.76629   0.00000    |
 |   248    0.82353   0.52941   0.00000   |    1.34102   0.86208   0.00000    |
 |   249    0.82353   0.58824   0.00000   |    1.34102   0.95787   0.00000    |
 |   250    0.82353   0.64706   0.00000   |    1.34102   1.05365   0.00000    |
 |   251    0.82353   0.70588   0.00000   |    1.34102   1.14944   0.00000    |
 |   252    0.82353   0.76471   0.00000   |    1.34102   1.24523   0.00000    |
 |   253    0.82353   0.82353   0.00000   |    1.34102   1.34102   0.00000    |
 |   254    0.82353   0.88235   0.00000   |    1.34102   1.43680   0.00000    |
 |   255    0.82353   0.94118   0.00000   |    1.34102   1.53259   0.00000    |
 |   256    0.88235   0.00000   0.00000   |    1.43680   0.00000   0.00000    |
 |   257    0.88235   0.05882   0.00000   |    1.43680   0.09579   0.00000    |
 |   258    0.88235   0.11765   0.00000   |    1.43680   0.19157   0.00000    |
 |   259    0.88235   0.17647   0.00000   |    1.43680   0.28736   0.00000    |
 |   260    0.88235   0.23529   0.00000   |    1.43680   0.38315   0.00000    |
 |   261    0.88235   0.29412   0.00000   |    1.43680   0.47893   0.00000    |
 |   262    0.88235   0.35294   0.00000   |    1.43680   0.57472   0.00000    |
 |   263    0.88235   0.41176   0.00000   |    1.43680   0.67051   0.00000    |
 |   264    0.88235   0.47059   0.00000   |    1.43680   0.76629   0.00000    |
 |   265    0.88235   0.52941   0.00000   |    1.43680   0.86208   0.00000    |
 |   266    0.88235   0.58824   0.00000   |    1.43680   0.95787   0.00000    |
 |   267    0.88235   0.64706   0.00000   |    1.43680   1.05365   0.00000    |
 |   268    0.88235   0.70588   0.00000   |    1.43680   1.14944   0.00000    |
 |   269    0.88235   0.76471   0.00000   |    1.43680   1.24523   0.00000    |
 |   270    0.88235   0.82353   0.00000   |    1.43680   1.34102   0.00000    |
 |   271    0.88235   0.88235   0.00000   |    1.43680   1.43680   0.00000    |
 |   272    0.88235   0.94118   0.00000   |    1.43680   1.53259   0.00000    |
 |   273    0.94118   0.00000   0.00000   |    1.53259   0.00000   0.00000    |
 |   274    0.94118   0.05882   0.00000   |    1.53259   0.09579   0.00000    |
 |   275    0.94118   0.11765   0.00000   |    1.53259   0.19157   0.00000    |
 |   276    0.94118   0.17647   0.00000   |    1.53259   0.28736   0.00000    |
 |   277    0.94118   0.23529   0.00000   |    1.53259   0.38315   0.00000    |
 |   278    0.94118   0.29412   0.00000   |    1.53259   0.47893   0.00000    |
 |   279    0.94118   0.35294   0.00000   |    1.53259   0.57472   0.00000    |
 |   280    0.94118   0.41176   0.00000   |    1.53259   0.67051   0.00000    |
 |   281    0.94118   0.47059   0.00000   |    1.53259   0.76629   0.00000    |
 |   282    0.94118   0.52941   0.00000   |    1.53259   0.86208   0.00000    |
 |   283    0.94118   0.58824   0.00000   |    1.53259   0.95787   0.00000    |
 |   284    0.94118   0.64706   0.00000   |    1.53259   1.05365   0.00000    |
 |   285    0.94118   0.70588   0.00000   |    1.53259   1.14944   0.00000    |
 |   286    0.94118   0.76471   0.00000   |    1.53259   1.24523   0.00000    |
 |   287    0.94118   0.82353   0.00000   |    1.53259   1.34102   0.00000    |
 |   288    0.94118   0.88235   0.00000   |    1.53259   1.43680   0.00000    |
 |   289    0.94118   0.94118   0.00000   |    1.53259   1.53259   0.00000    |
 *----------------------------------------------------------------------------*
  
  
 *---------------------------------- MAIN ------------------------------------*
 |  Number of Wannier Functions               :                 1             |
 |  Number of Objective Wannier Functions     :                 1             |
 |  Number of input Bloch states              :                 7             |
 |  Output verbosity (1=low, 5=high)          :                 2             |
 |  Timing Level (1=low, 5=high)              :                 1             |
 |  Optimisation (0=memory, 3=speed)          :                 3             |
 |  Length Unit                               :               Ang             |
 |  Post-processing setup (write *.nnkp)      :                 F             |
 |  Using Gamma-only branch of algorithms     :                 F             |
 |  Using symmetry-adapted WF mode            :                 T             |
 |  Tolerance for symmetry condition on U     :         0.100E-08             |
 *----------------------------------------------------------------------------*
 *------------------------------- WANNIERISE ---------------------------------*
 |  Total number of iterations                :              1000             |
 |  Number of CG steps before reset           :                 5             |
 |  Trial step length for line search         :             2.000             |
 |  Convergence tolerence                     :         0.100E-11             |
 |  Convergence window                        :                 5             |
 |  Iterations between writing output         :                 1             |
 |  Iterations between backing up to disk     :               100             |
 |  Write r^2_nm to file                      :                 F             |
 |  Write xyz WF centres to file              :                 F             |
 |  Write on-site energies <0n|H|0n> to file  :                 F             |
 |  Use guiding centre to control phases      :                 F             |
 |  Use phases for initial projections        :                 F             |
 *----------------------------------------------------------------------------*
 *------------------------------- DISENTANGLE --------------------------------*
 |  Using band disentanglement                :                 T             |
 |  Total number of iterations                :              1000             |
 |  Mixing ratio                              :             0.500             |
 |  Convergence tolerence                     :         1.000E-12             |
 |  Convergence window                        :                 3             |
 *----------------------------------------------------------------------------*
 *-------------------------------- PLOTTING ----------------------------------*
 |  Plotting interpolated bandstructure       :                 T             |
 |   Number of K-path sections                :                 3             |
 |   Divisions along first K-path section     :               100             |
 |   Output format                            :           gnuplot             |
 |   Output mode                              :               s-k             |
 *----------------------------------------------------------------------------*
 |   K-space path sections:                                                   |
 |    From: G       0.000  0.000  0.000     To: X       0.500  0.000  0.000   |
 |    From: X       0.500  0.000  0.000     To: M       0.500  0.500  0.000   |
 |    From: M       0.500  0.500  0.000     To: G       0.000  0.000  0.000   |
 *----------------------------------------------------------------------------*
 |  Plotting Hamiltonian in WF basis          :                 T             |
 *----------------------------------------------------------------------------*
 Time to read parameters        0.036 (sec)

 *---------------------------------- K-MESH ----------------------------------*
 +----------------------------------------------------------------------------+
 |                    Distance to Nearest-Neighbour Shells                    |
 |                    ------------------------------------                    |
 |          Shell             Distance (Ang^-1)          Multiplicity         |
 |          -----             -----------------          ------------         |
 |             1                   0.095787                      4            |
 |             2                   0.135463                      4            |
 |             3                   0.191574                      4            |
 |             4                   0.214186                      8            |
 |             5                   0.270926                      4            |
 |             6                   0.287360                      4            |
 |             7                   0.302904                      8            |
 |             8                   0.325675                      2            |
 |             9                   0.339469                      8            |
 |            10                   0.345364                      8            |
 |            11                   0.352724                      8            |
 |            12                   0.377842                      8            |
 |            13                   0.383147                      4            |
 |            14                   0.389795                     16            |
 |            15                   0.394939                      8            |
 |            16                   0.406389                      4            |
 |            17                   0.423633                      8            |
 |            18                   0.428372                      8            |
 |            19                   0.434327                      8            |
 |            20                   0.444764                     16            |
 |            21                   0.474701                     16            |
 |            22                   0.478934                     12            |
 |            23                   0.488419                      8            |
 |            24                   0.502858                      8            |
 |            25                   0.511900                     16            |
 |            26                   0.515828                      8            |
 |            27                   0.520784                      8            |
 |            28                   0.538114                     16            |
 |            29                   0.541852                      4            |
 |            30                   0.558528                      8            |
 |            31                   0.574721                      4            |
 |            32                   0.579174                     24            |
 |            33                   0.582648                      8            |
 |            34                   0.587041                     16            |
 |            35                   0.605809                      8            |
 |            36                   0.610035                     16            |
 +----------------------------------------------------------------------------+
 | The b-vectors are chosen automatically                                     |
 | Shell:  1 w_b   54.4952385      (Ang^2)                                    |
 | SVD found small singular value, Rejecting this shell and trying the next   |
 | SVD found small singular value, Rejecting this shell and trying the next   |
 | SVD found small singular value, Rejecting this shell and trying the next   |
 | SVD found small singular value, Rejecting this shell and trying the next   |
 | Shell:  1 w_b   54.4952385      (Ang^2)                                    |
 | Shell:  2 w_b    4.7141211      (Ang^2)                                    |
 | The following shells are used:   1,  8                                     |
 +----------------------------------------------------------------------------+
 |                        Shell   # Nearest-Neighbours                        |
 |                        -----   --------------------                        |
 |                          1               4                                 |
 |                          8               2                                 |
 +----------------------------------------------------------------------------+
 | Completeness relation is fully satisfied [Eq. (B1), PRB 56, 12847 (1997)]  |
 +----------------------------------------------------------------------------+
 |                  b_k Vectors (Ang^-1) and Weights (Ang^2)                  |
 |                  ----------------------------------------                  |
 |            No.         b_k(x)      b_k(y)      b_k(z)        w_b           |
 |            ---        --------------------------------     --------        |
 |             1         0.000000    0.095787    0.000000    54.495239        |
 |             2         0.095787    0.000000    0.000000    54.495239        |
 |             3         0.000000   -0.095787    0.000000    54.495239        |
 |             4        -0.095787    0.000000    0.000000    54.495239        |
 |             5         0.000000    0.000000    0.325675     4.714121        |
 |             6         0.000000    0.000000   -0.325675     4.714121        |
 +----------------------------------------------------------------------------+
 |                           b_k Directions (Ang^-1)                          |
 |                           -----------------------                          |
 |            No.           x           y           z                         |
 |            ---        --------------------------------                     |
 |             1         0.000000    0.095787    0.000000                     |
 |             2         0.095787    0.000000    0.000000                     |
 |             3         0.000000    0.000000    0.325675                     |
 +----------------------------------------------------------------------------+
  
 Time to get kmesh              1.102 (sec)
 *============================================================================*
 |                              MEMORY ESTIMATE                               |
 |         Maximum RAM allocated during each phase of the calculation         |
 *============================================================================*
 |                        Disentanglement            1.94 Mb                  |
 |                            Wannierise:            0.27 Mb                  |
 |                                                                            |
 |   N.B. by setting optimisation=0 memory usage will be reduced to:          |
 |                        Disentanglement            1.94 Mb                  |
 |                            Wannierise:            0.24 Mb                  |
 |   However, this will result in more i/o and slow down the calculation      |
 |                          plot_wannier:            0.27 Mb                  |
 *----------------------------------------------------------------------------*
  
 Starting a new Wannier90 calculation ...


 Reading overlaps from svo.mmn    :  Created on 22Mar2021 at 16:15:21

 Reading projections from svo.amn :  Created on 22Mar2021 at 16:15: 2

 Time to read overlaps          0.108 (sec)

 *------------------------------- DISENTANGLE --------------------------------*
 +----------------------------------------------------------------------------+
 |                              Energy  Windows                               |
 |                              ---------------                               |
 |                   Outer:    0.50000  to    5.00000  (eV)                   |
 |                   No frozen states were specified                          |
 +----------------------------------------------------------------------------+
 |                        K-points with Frozen States                         |
 |                        ---------------------------                         |
 +----------------------------------------------------------------------------+
   Number of target bands to extract:    1
 +----------------------------------------------------------------------------+
 |                                  Windows                                   |
 |                                  -------                                   |
 |               K-point      Ndimwin     Ndimfroz    Nfirstwin               |
 |               ----------------------------------------------               |
 |                   1            7            0           1                  |
 |                   2            7            0           1                  |
 |                   3            7            0           1                  |
 |                   4            7            0           1                  |
 |                   5            7            0           1                  |
 |                   6            7            0           1                  |
 |                   7            6            0           1                  |
 |                   8            6            0           1                  |
 |                   9            6            0           1                  |
 |                  10            6            0           1                  |
 |                  11            6            0           1                  |
 |                  12            6            0           1                  |
 |                  13            7            0           1                  |
 |                  14            7            0           1                  |
 |                  15            7            0           1                  |
 |                  16            7            0           1                  |
 |                  17            7            0           1                  |
 |                  18            7            0           1                  |
 |                  19            7            0           1                  |
 |                  20            7            0           1                  |
 |                  21            7            0           1                  |
 |                  22            7            0           1                  |
 |                  23            7            0           1                  |
 |                  24            6            0           1                  |
 |                  25            6            0           1                  |
 |                  26            6            0           1                  |
 |                  27            6            0           1                  |
 |                  28            6            0           1                  |
 |                  29            6            0           1                  |
 |                  30            7            0           1                  |
 |                  31            7            0           1                  |
 |                  32            7            0           1                  |
 |                  33            7            0           1                  |
 |                  34            7            0           1                  |
 |                  35            7            0           1                  |
 |                  36            7            0           1                  |
 |                  37            7            0           1                  |
 |                  38            7            0           1                  |
 |                  39            6            0           1                  |
 |                  40            6            0           1                  |
 |                  41            5            0           1                  |
 |                  42            5            0           1                  |
 |                  43            6            0           1                  |
 |                  44            6            0           1                  |
 |                  45            5            0           1                  |
 |                  46            5            0           1                  |
 |                  47            6            0           1                  |
 |                  48            6            0           1                  |
 |                  49            7            0           1                  |
 |                  50            7            0           1                  |
 |                  51            7            0           1                  |
 |                  52            7            0           1                  |
 |                  53            7            0           1                  |
 |                  54            7            0           1                  |
 |                  55            6            0           1                  |
 |                  56            6            0           1                  |
 |                  57            5            0           1                  |
 |                  58            5            0           1                  |
 |                  59            5            0           1                  |
 |                  60            5            0           1                  |
 |                  61            5            0           1                  |
 |                  62            5            0           1                  |
 |                  63            5            0           1                  |
 |                  64            5            0           1                  |
 |                  65            6            0           1                  |
 |                  66            6            0           1                  |
 |                  67            7            0           1                  |
 |                  68            7            0           1                  |
 |                  69            7            0           1                  |
 |                  70            7            0           1                  |
 |                  71            6            0           1                  |
 |                  72            6            0           1                  |
 |                  73            6            0           1                  |
 |                  74            5            0           1                  |
 |                  75            5            0           1                  |
 |                  76            5            0           1                  |
 |                  77            4            0           1                  |
 |                  78            4            0           1                  |
 |                  79            5            0           1                  |
 |                  80            5            0           1                  |
 |                  81            5            0           1                  |
 |                  82            6            0           1                  |
 |                  83            6            0           1                  |
 |                  84            6            0           1                  |
 |                  85            7            0           1                  |
 |                  86            7            0           1                  |
 |                  87            7            0           1                  |
 |                  88            6            0           1                  |
 |                  89            5            0           1                  |
 |                  90            5            0           1                  |
 |                  91            5            0           1                  |
 |                  92            5            0           1                  |
 |                  93            4            0           1                  |
 |                  94            3            0           1                  |
 |                  95            3            0           1                  |
 |                  96            4            0           1                  |
 |                  97            5            0           1                  |
 |                  98            5            0           1                  |
 |                  99            5            0           1                  |
 |                 100            5            0           1                  |
 |                 101            6            0           1                  |
 |                 102            7            0           1                  |
 |                 103            6            0           1                  |
 |                 104            6            0           1                  |
 |                 105            5            0           1                  |
 |                 106            5            0           1                  |
 |                 107            5            0           1                  |
 |                 108            5            0           1                  |
 |                 109            5            0           1                  |
 |                 110            3            0           1                  |
 |                 111            3            0           1                  |
 |                 112            3            0           1                  |
 |                 113            3            0           1                  |
 |                 114            5            0           1                  |
 |                 115            5            0           1                  |
 |                 116            5            0           1                  |
 |                 117            5            0           1                  |
 |                 118            5            0           1                  |
 |                 119            6            0           1                  |
 |                 120            6            0           1                  |
 |                 121            6            0           1                  |
 |                 122            5            0           1                  |
 |                 123            5            0           1                  |
 |                 124            5            0           1                  |
 |                 125            4            0           1                  |
 |                 126            3            0           1                  |
 |                 127            3            0           1                  |
 |                 128            3            0           1                  |
 |                 129            3            0           1                  |
 |                 130            3            0           1                  |
 |                 131            3            0           1                  |
 |                 132            4            0           1                  |
 |                 133            5            0           1                  |
 |                 134            5            0           1                  |
 |                 135            5            0           1                  |
 |                 136            6            0           1                  |
 |                 137            6            0           1                  |
 |                 138            6            0           1                  |
 |                 139            6            0           1                  |
 |                 140            5            0           1                  |
 |                 141            4            0           1                  |
 |                 142            3            0           1                  |
 |                 143            3            0           1                  |
 |                 144            3            0           1                  |
 |                 145            3            0           1                  |
 |                 146            3            0           1                  |
 |                 147            3            0           1                  |
 |                 148            3            0           1                  |
 |                 149            3            0           1                  |
 |                 150            4            0           1                  |
 |                 151            5            0           1                  |
 |                 152            6            0           1                  |
 |                 153            6            0           1                  |
 |                 154            6            0           1                  |
 |                 155            6            0           1                  |
 |                 156            6            0           1                  |
 |                 157            5            0           1                  |
 |                 158            4            0           1                  |
 |                 159            3            0           1                  |
 |                 160            3            0           1                  |
 |                 161            3            0           1                  |
 |                 162            3            0           1                  |
 |                 163            3            0           1                  |
 |                 164            3            0           1                  |
 |                 165            3            0           1                  |
 |                 166            3            0           1                  |
 |                 167            4            0           1                  |
 |                 168            5            0           1                  |
 |                 169            6            0           1                  |
 |                 170            6            0           1                  |
 |                 171            6            0           1                  |
 |                 172            6            0           1                  |
 |                 173            5            0           1                  |
 |                 174            5            0           1                  |
 |                 175            5            0           1                  |
 |                 176            4            0           1                  |
 |                 177            3            0           1                  |
 |                 178            3            0           1                  |
 |                 179            3            0           1                  |
 |                 180            3            0           1                  |
 |                 181            3            0           1                  |
 |                 182            3            0           1                  |
 |                 183            4            0           1                  |
 |                 184            5            0           1                  |
 |                 185            5            0           1                  |
 |                 186            5            0           1                  |
 |                 187            6            0           1                  |
 |                 188            6            0           1                  |
 |                 189            6            0           1                  |
 |                 190            5            0           1                  |
 |                 191            5            0           1                  |
 |                 192            5            0           1                  |
 |                 193            5            0           1                  |
 |                 194            5            0           1                  |
 |                 195            3            0           1                  |
 |                 196            3            0           1                  |
 |                 197            3            0           1                  |
 |                 198            3            0           1                  |
 |                 199            5            0           1                  |
 |                 200            5            0           1                  |
 |                 201            5            0           1                  |
 |                 202            5            0           1                  |
 |                 203            5            0           1                  |
 |                 204            6            0           1                  |
 |                 205            7            0           1                  |
 |                 206            7            0           1                  |
 |                 207            6            0           1                  |
 |                 208            5            0           1                  |
 |                 209            5            0           1                  |
 |                 210            5            0           1                  |
 |                 211            5            0           1                  |
 |                 212            4            0           1                  |
 |                 213            3            0           1                  |
 |                 214            3            0           1                  |
 |                 215            4            0           1                  |
 |                 216            5            0           1                  |
 |                 217            5            0           1                  |
 |                 218            5            0           1                  |
 |                 219            5            0           1                  |
 |                 220            6            0           1                  |
 |                 221            7            0           1                  |
 |                 222            7            0           1                  |
 |                 223            7            0           1                  |
 |                 224            6            0           1                  |
 |                 225            6            0           1                  |
 |                 226            6            0           1                  |
 |                 227            5            0           1                  |
 |                 228            5            0           1                  |
 |                 229            5            0           1                  |
 |                 230            4            0           1                  |
 |                 231            4            0           1                  |
 |                 232            5            0           1                  |
 |                 233            5            0           1                  |
 |                 234            5            0           1                  |
 |                 235            6            0           1                  |
 |                 236            6            0           1                  |
 |                 237            6            0           1                  |
 |                 238            7            0           1                  |
 |                 239            7            0           1                  |
 |                 240            7            0           1                  |
 |                 241            7            0           1                  |
 |                 242            6            0           1                  |
 |                 243            6            0           1                  |
 |                 244            5            0           1                  |
 |                 245            5            0           1                  |
 |                 246            5            0           1                  |
 |                 247            5            0           1                  |
 |                 248            5            0           1                  |
 |                 249            5            0           1                  |
 |                 250            5            0           1                  |
 |                 251            5            0           1                  |
 |                 252            6            0           1                  |
 |                 253            6            0           1                  |
 |                 254            7            0           1                  |
 |                 255            7            0           1                  |
 |                 256            7            0           1                  |
 |                 257            7            0           1                  |
 |                 258            7            0           1                  |
 |                 259            7            0           1                  |
 |                 260            6            0           1                  |
 |                 261            6            0           1                  |
 |                 262            5            0           1                  |
 |                 263            5            0           1                  |
 |                 264            6            0           1                  |
 |                 265            6            0           1                  |
 |                 266            5            0           1                  |
 |                 267            5            0           1                  |
 |                 268            6            0           1                  |
 |                 269            6            0           1                  |
 |                 270            7            0           1                  |
 |                 271            7            0           1                  |
 |                 272            7            0           1                  |
 |                 273            7            0           1                  |
 |                 274            7            0           1                  |
 |                 275            7            0           1                  |
 |                 276            7            0           1                  |
 |                 277            7            0           1                  |
 |                 278            7            0           1                  |
 |                 279            6            0           1                  |
 |                 280            6            0           1                  |
 |                 281            6            0           1                  |
 |                 282            6            0           1                  |
 |                 283            6            0           1                  |
 |                 284            6            0           1                  |
 |                 285            7            0           1                  |
 |                 286            7            0           1                  |
 |                 287            7            0           1                  |
 |                 288            7            0           1                  |
 |                 289            7            0           1                  |
 +----------------------------------------------------------------------------+

                   Unitarised projection of Wannier functions                  
                   ------------------------------------------                  
   A_mn = <psi_m|g_n> --> S = A.A^+ --> U = S^-1/2.A
   In dis_project... done
   No inner window (linner = F)

                   Extraction of optimally-connected subspace                  
                   ------------------------------------------                  
 +---------------------------------------------------------------------+<-- DIS
 |  Iter     Omega_I(i-1)      Omega_I(i)      Delta (frac.)    Time   |<-- DIS
 +---------------------------------------------------------------------+<-- DIS
       1       2.14799462       2.10917413       1.841E-02      0.00    <-- DIS
       2       2.12703623       2.09913425       1.329E-02      0.01    <-- DIS
       3       2.11236221       2.09391559       8.810E-03      0.01    <-- DIS
       4       2.10265777       2.09037471       5.876E-03      0.01    <-- DIS
       5       2.09617325       2.08782811       3.997E-03      0.02    <-- DIS
       6       2.09174737       2.08593494       2.786E-03      0.02    <-- DIS
       7       2.08864896       2.08449078       1.995E-03      0.03    <-- DIS
       8       2.08642079       2.08336556       1.466E-03      0.03    <-- DIS
       9       2.08477541       2.08247334       1.105E-03      0.04    <-- DIS
      10       2.08352991       2.08175540       8.524E-04      0.04    <-- DIS
      11       2.08256591       2.08117050       6.705E-04      0.05    <-- DIS
      12       2.08180516       2.08068890       5.365E-04      0.05    <-- DIS
      13       2.08119474       2.08028871       4.355E-04      0.05    <-- DIS
      14       2.08069801       2.07995348       3.580E-04      0.06    <-- DIS
      15       2.08028892       2.07967067       2.973E-04      0.06    <-- DIS
      16       2.07994858       2.07943055       2.491E-04      0.07    <-- DIS
      17       2.07966294       2.07922550       2.104E-04      0.07    <-- DIS
      18       2.07942140       2.07904950       1.789E-04      0.08    <-- DIS
      19       2.07921578       2.07889771       1.530E-04      0.08    <-- DIS
      20       2.07903973       2.07876624       1.316E-04      0.08    <-- DIS
      21       2.07888820       2.07865192       1.137E-04      0.09    <-- DIS
      22       2.07875717       2.07855215       9.864E-05      0.09    <-- DIS
      23       2.07864338       2.07846480       8.592E-05      0.10    <-- DIS
      24       2.07854420       2.07838809       7.511E-05      0.10    <-- DIS
      25       2.07845744       2.07832055       6.586E-05      0.11    <-- DIS
      26       2.07838131       2.07826093       5.792E-05      0.11    <-- DIS
      27       2.07831433       2.07820818       5.108E-05      0.11    <-- DIS
      28       2.07825524       2.07816142       4.514E-05      0.12    <-- DIS
      29       2.07820299       2.07811990       3.998E-05      0.12    <-- DIS
      30       2.07815669       2.07808295       3.548E-05      0.13    <-- DIS
      31       2.07811559       2.07805004       3.154E-05      0.13    <-- DIS
      32       2.07807904       2.07802068       2.808E-05      0.14    <-- DIS
      33       2.07804649       2.07799446       2.504E-05      0.14    <-- DIS
      34       2.07801747       2.07797102       2.235E-05      0.14    <-- DIS
      35       2.07799155       2.07795003       1.998E-05      0.15    <-- DIS
      36       2.07796837       2.07793124       1.787E-05      0.15    <-- DIS
      37       2.07794764       2.07791439       1.600E-05      0.16    <-- DIS
      38       2.07792907       2.07789927       1.434E-05      0.16    <-- DIS
      39       2.07791243       2.07788570       1.286E-05      0.17    <-- DIS
      40       2.07789750       2.07787352       1.154E-05      0.17    <-- DIS
      41       2.07788411       2.07786257       1.036E-05      0.17    <-- DIS
      42       2.07787208       2.07785273       9.311E-06      0.18    <-- DIS
      43       2.07786127       2.07784388       8.368E-06      0.18    <-- DIS
      44       2.07785155       2.07783592       7.524E-06      0.19    <-- DIS
      45       2.07784281       2.07782875       6.768E-06      0.19    <-- DIS
      46       2.07783496       2.07782230       6.089E-06      0.19    <-- DIS
      47       2.07782789       2.07781650       5.480E-06      0.20    <-- DIS
      48       2.07782152       2.07781127       4.933E-06      0.20    <-- DIS
      49       2.07781579       2.07780656       4.442E-06      0.21    <-- DIS
      50       2.07781063       2.07780232       4.001E-06      0.21    <-- DIS
      51       2.07780599       2.07779850       3.604E-06      0.22    <-- DIS
      52       2.07780180       2.07779506       3.247E-06      0.22    <-- DIS
      53       2.07779803       2.07779195       2.925E-06      0.22    <-- DIS
      54       2.07779464       2.07778916       2.636E-06      0.23    <-- DIS
      55       2.07779157       2.07778664       2.376E-06      0.23    <-- DIS
      56       2.07778881       2.07778437       2.141E-06      0.24    <-- DIS
      57       2.07778633       2.07778232       1.930E-06      0.24    <-- DIS
      58       2.07778409       2.07778047       1.740E-06      0.25    <-- DIS
      59       2.07778207       2.07777881       1.569E-06      0.25    <-- DIS
      60       2.07778024       2.07777731       1.414E-06      0.26    <-- DIS
      61       2.07777860       2.07777595       1.275E-06      0.26    <-- DIS
      62       2.07777712       2.07777473       1.150E-06      0.26    <-- DIS
      63       2.07777578       2.07777363       1.037E-06      0.27    <-- DIS
      64       2.07777458       2.07777264       9.349E-07      0.27    <-- DIS
      65       2.07777349       2.07777174       8.431E-07      0.28    <-- DIS
      66       2.07777252       2.07777094       7.603E-07      0.28    <-- DIS
      67       2.07777163       2.07777021       6.857E-07      0.28    <-- DIS
      68       2.07777084       2.07776955       6.184E-07      0.29    <-- DIS
      69       2.07777012       2.07776896       5.577E-07      0.29    <-- DIS
      70       2.07776947       2.07776843       5.030E-07      0.30    <-- DIS
      71       2.07776889       2.07776794       4.537E-07      0.30    <-- DIS
      72       2.07776836       2.07776751       4.092E-07      0.30    <-- DIS
      73       2.07776788       2.07776712       3.691E-07      0.31    <-- DIS
      74       2.07776746       2.07776676       3.329E-07      0.31    <-- DIS
      75       2.07776707       2.07776645       3.003E-07      0.32    <-- DIS
      76       2.07776672       2.07776616       2.708E-07      0.32    <-- DIS
      77       2.07776641       2.07776590       2.443E-07      0.33    <-- DIS
      78       2.07776612       2.07776567       2.204E-07      0.33    <-- DIS
      79       2.07776587       2.07776545       1.988E-07      0.33    <-- DIS
      80       2.07776564       2.07776526       1.793E-07      0.34    <-- DIS
      81       2.07776543       2.07776509       1.618E-07      0.34    <-- DIS
      82       2.07776524       2.07776494       1.459E-07      0.35    <-- DIS
      83       2.07776507       2.07776480       1.316E-07      0.35    <-- DIS
      84       2.07776492       2.07776467       1.188E-07      0.35    <-- DIS
      85       2.07776478       2.07776456       1.071E-07      0.36    <-- DIS
      86       2.07776466       2.07776446       9.667E-08      0.36    <-- DIS
      87       2.07776455       2.07776436       8.722E-08      0.37    <-- DIS
      88       2.07776444       2.07776428       7.869E-08      0.37    <-- DIS
      89       2.07776435       2.07776421       7.100E-08      0.38    <-- DIS
      90       2.07776427       2.07776414       6.407E-08      0.38    <-- DIS
      91       2.07776420       2.07776408       5.781E-08      0.39    <-- DIS
      92       2.07776413       2.07776402       5.217E-08      0.39    <-- DIS
      93       2.07776407       2.07776397       4.708E-08      0.39    <-- DIS
      94       2.07776402       2.07776393       4.249E-08      0.40    <-- DIS
      95       2.07776397       2.07776389       3.835E-08      0.40    <-- DIS
      96       2.07776392       2.07776385       3.461E-08      0.41    <-- DIS
      97       2.07776388       2.07776382       3.124E-08      0.41    <-- DIS
      98       2.07776385       2.07776379       2.820E-08      0.41    <-- DIS
      99       2.07776381       2.07776376       2.546E-08      0.42    <-- DIS
     100       2.07776378       2.07776374       2.299E-08      0.42    <-- DIS
     101       2.07776376       2.07776371       2.076E-08      0.43    <-- DIS
     102       2.07776373       2.07776370       1.875E-08      0.43    <-- DIS
     103       2.07776371       2.07776368       1.694E-08      0.44    <-- DIS
     104       2.07776369       2.07776366       1.530E-08      0.44    <-- DIS
     105       2.07776368       2.07776365       1.382E-08      0.44    <-- DIS
     106       2.07776366       2.07776363       1.249E-08      0.45    <-- DIS
     107       2.07776365       2.07776362       1.129E-08      0.45    <-- DIS
     108       2.07776363       2.07776361       1.021E-08      0.46    <-- DIS
     109       2.07776362       2.07776360       9.233E-09      0.46    <-- DIS
     110       2.07776361       2.07776359       8.351E-09      0.46    <-- DIS
     111       2.07776360       2.07776359       7.557E-09      0.47    <-- DIS
     112       2.07776359       2.07776358       6.840E-09      0.47    <-- DIS
     113       2.07776359       2.07776357       6.193E-09      0.48    <-- DIS
     114       2.07776358       2.07776357       5.610E-09      0.48    <-- DIS
     115       2.07776357       2.07776356       5.084E-09      0.49    <-- DIS
     116       2.07776357       2.07776356       4.609E-09      0.49    <-- DIS
     117       2.07776356       2.07776355       4.181E-09      0.49    <-- DIS
     118       2.07776356       2.07776355       3.795E-09      0.50    <-- DIS
     119       2.07776355       2.07776355       3.447E-09      0.50    <-- DIS
     120       2.07776355       2.07776354       3.133E-09      0.51    <-- DIS
     121       2.07776355       2.07776354       2.849E-09      0.51    <-- DIS
     122       2.07776354       2.07776354       2.594E-09      0.51    <-- DIS
     123       2.07776354       2.07776354       2.363E-09      0.52    <-- DIS
     124       2.07776354       2.07776353       2.155E-09      0.52    <-- DIS
     125       2.07776354       2.07776353       1.968E-09      0.53    <-- DIS
     126       2.07776353       2.07776353       1.798E-09      0.53    <-- DIS
     127       2.07776353       2.07776353       1.646E-09      0.54    <-- DIS
     128       2.07776353       2.07776353       1.508E-09      0.54    <-- DIS
     129       2.07776353       2.07776353       1.384E-09      0.54    <-- DIS
     130       2.07776353       2.07776352       1.272E-09      0.55    <-- DIS
     131       2.07776353       2.07776352       1.171E-09      0.55    <-- DIS
     132       2.07776352       2.07776352       1.080E-09      0.56    <-- DIS
     133       2.07776352       2.07776352       9.978E-10      0.56    <-- DIS
     134       2.07776352       2.07776352       9.237E-10      0.56    <-- DIS
     135       2.07776352       2.07776352       8.568E-10      0.57    <-- DIS
     136       2.07776352       2.07776352       7.965E-10      0.57    <-- DIS
     137       2.07776352       2.07776352       7.421E-10      0.58    <-- DIS
     138       2.07776352       2.07776352       6.930E-10      0.58    <-- DIS
     139       2.07776352       2.07776352       6.488E-10      0.58    <-- DIS
     140       2.07776352       2.07776352       6.089E-10      0.59    <-- DIS
     141       2.07776352       2.07776352       5.729E-10      0.59    <-- DIS
     142       2.07776352       2.07776352       5.404E-10      0.60    <-- DIS
     143       2.07776352       2.07776352       5.111E-10      0.60    <-- DIS
     144       2.07776352       2.07776352       4.846E-10      0.61    <-- DIS
     145       2.07776352       2.07776352       4.608E-10      0.61    <-- DIS
     146       2.07776352       2.07776352       4.393E-10      0.62    <-- DIS
     147       2.07776352       2.07776352       4.199E-10      0.62    <-- DIS
     148       2.07776352       2.07776352       4.024E-10      0.62    <-- DIS
     149       2.07776352       2.07776352       3.867E-10      0.63    <-- DIS
     150       2.07776352       2.07776352       3.724E-10      0.63    <-- DIS
     151       2.07776352       2.07776352       3.596E-10      0.64    <-- DIS
     152       2.07776352       2.07776352       3.480E-10      0.64    <-- DIS
     153       2.07776352       2.07776352       3.376E-10      0.65    <-- DIS
[...]
     824       2.07776351       2.07776351       2.415E-10      4.07    <-- DIS
     825       2.07776351       2.07776351       2.415E-10      4.07    <-- DIS
     826       2.07776351       2.07776351       2.415E-10      4.08    <-- DIS
     827       2.07776351       2.07776351       2.415E-10      4.08    <-- DIS
     828       2.07776351       2.07776351       2.415E-10      4.09    <-- DIS
     829       2.07776351       2.07776351       2.415E-10      4.09    <-- DIS
     830       2.07776351       2.07776351       2.415E-10      4.10    <-- DIS
     831       2.07776351       2.07776351       2.415E-10      4.10    <-- DIS
     832       2.07776351       2.07776351       2.415E-10      4.11    <-- DIS
     833       2.07776351       2.07776351       2.415E-10      4.11    <-- DIS
     834       2.07776351       2.07776351       2.415E-10      4.12    <-- DIS
     835       2.07776351       2.07776351       2.415E-10      4.12    <-- DIS
     836       2.07776351       2.07776351       2.415E-10      4.13    <-- DIS
     837       2.07776351       2.07776351       2.415E-10      4.13    <-- DIS
     838       2.07776351       2.07776351       2.415E-10      4.14    <-- DIS
     839       2.07776351       2.07776351       2.415E-10      4.15    <-- DIS
     840       2.07776351       2.07776351       2.415E-10      4.16    <-- DIS
     841       2.07776351       2.07776351       2.415E-10      4.17    <-- DIS
     842       2.07776351       2.07776351       2.415E-10      4.17    <-- DIS
     843       2.07776351       2.07776351       2.415E-10      4.18    <-- DIS
     844       2.07776351       2.07776351       2.415E-10      4.18    <-- DIS
     845       2.07776351       2.07776351       2.415E-10      4.19    <-- DIS
     846       2.07776351       2.07776351       2.415E-10      4.19    <-- DIS
     847       2.07776351       2.07776351       2.415E-10      4.20    <-- DIS
     848       2.07776351       2.07776351       2.415E-10      4.20    <-- DIS
     849       2.07776351       2.07776351       2.415E-10      4.21    <-- DIS
     850       2.07776351       2.07776351       2.415E-10      4.21    <-- DIS
     851       2.07776351       2.07776351       2.415E-10      4.22    <-- DIS
     852       2.07776351       2.07776351       2.415E-10      4.22    <-- DIS
     853       2.07776351       2.07776351       2.415E-10      4.23    <-- DIS
     854       2.07776351       2.07776351       2.415E-10      4.23    <-- DIS
     855       2.07776351       2.07776351       2.415E-10      4.24    <-- DIS
     856       2.07776351       2.07776351       2.415E-10      4.24    <-- DIS
     857       2.07776351       2.07776351       2.415E-10      4.25    <-- DIS
     858       2.07776351       2.07776351       2.415E-10      4.25    <-- DIS
     859       2.07776351       2.07776351       2.415E-10      4.26    <-- DIS
     860       2.07776351       2.07776351       2.415E-10      4.26    <-- DIS
     861       2.07776351       2.07776351       2.415E-10      4.27    <-- DIS
     862       2.07776351       2.07776351       2.415E-10      4.27    <-- DIS
     863       2.07776351       2.07776351       2.415E-10      4.28    <-- DIS
     864       2.07776351       2.07776351       2.415E-10      4.28    <-- DIS
     865       2.07776351       2.07776351       2.415E-10      4.29    <-- DIS
     866       2.07776351       2.07776351       2.415E-10      4.30    <-- DIS
     867       2.07776351       2.07776351       2.415E-10      4.30    <-- DIS
     868       2.07776351       2.07776351       2.415E-10      4.31    <-- DIS
     869       2.07776351       2.07776351       2.415E-10      4.31    <-- DIS
     870       2.07776351       2.07776351       2.415E-10      4.32    <-- DIS
     871       2.07776351       2.07776351       2.415E-10      4.32    <-- DIS
     872       2.07776351       2.07776351       2.415E-10      4.33    <-- DIS
     873       2.07776351       2.07776351       2.415E-10      4.33    <-- DIS
     874       2.07776351       2.07776351       2.415E-10      4.34    <-- DIS
     875       2.07776351       2.07776351       2.415E-10      4.34    <-- DIS
     876       2.07776351       2.07776351       2.415E-10      4.35    <-- DIS
     877       2.07776351       2.07776351       2.415E-10      4.35    <-- DIS
     878       2.07776351       2.07776351       2.415E-10      4.36    <-- DIS
     879       2.07776351       2.07776351       2.415E-10      4.36    <-- DIS
     880       2.07776351       2.07776351       2.415E-10      4.37    <-- DIS
     881       2.07776351       2.07776351       2.415E-10      4.37    <-- DIS
     882       2.07776351       2.07776351       2.415E-10      4.38    <-- DIS
     883       2.07776351       2.07776351       2.415E-10      4.38    <-- DIS
     884       2.07776351       2.07776351       2.415E-10      4.39    <-- DIS
     885       2.07776351       2.07776351       2.415E-10      4.39    <-- DIS
     886       2.07776351       2.07776351       2.415E-10      4.40    <-- DIS
     887       2.07776351       2.07776351       2.415E-10      4.40    <-- DIS
     888       2.07776351       2.07776351       2.415E-10      4.41    <-- DIS
     889       2.07776351       2.07776351       2.415E-10      4.41    <-- DIS
     890       2.07776351       2.07776351       2.415E-10      4.42    <-- DIS
     891       2.07776351       2.07776351       2.415E-10      4.42    <-- DIS
     892       2.07776351       2.07776351       2.415E-10      4.43    <-- DIS
     893       2.07776351       2.07776351       2.415E-10      4.43    <-- DIS
     894       2.07776351       2.07776351       2.415E-10      4.44    <-- DIS
     895       2.07776351       2.07776351       2.415E-10      4.44    <-- DIS
     896       2.07776351       2.07776351       2.415E-10      4.45    <-- DIS
     897       2.07776351       2.07776351       2.415E-10      4.45    <-- DIS
     898       2.07776351       2.07776351       2.415E-10      4.46    <-- DIS
     899       2.07776351       2.07776351       2.415E-10      4.46    <-- DIS
     900       2.07776351       2.07776351       2.415E-10      4.47    <-- DIS
     901       2.07776351       2.07776351       2.415E-10      4.47    <-- DIS
     902       2.07776351       2.07776351       2.415E-10      4.48    <-- DIS
     903       2.07776351       2.07776351       2.415E-10      4.48    <-- DIS
     904       2.07776351       2.07776351       2.415E-10      4.49    <-- DIS
     905       2.07776351       2.07776351       2.415E-10      4.49    <-- DIS
     906       2.07776351       2.07776351       2.415E-10      4.50    <-- DIS
     907       2.07776351       2.07776351       2.415E-10      4.50    <-- DIS
     908       2.07776351       2.07776351       2.415E-10      4.51    <-- DIS
     909       2.07776351       2.07776351       2.415E-10      4.51    <-- DIS
     910       2.07776351       2.07776351       2.415E-10      4.52    <-- DIS
     911       2.07776351       2.07776351       2.415E-10      4.52    <-- DIS
     912       2.07776351       2.07776351       2.415E-10      4.53    <-- DIS
     913       2.07776351       2.07776351       2.415E-10      4.53    <-- DIS
     914       2.07776351       2.07776351       2.415E-10      4.54    <-- DIS
     915       2.07776351       2.07776351       2.415E-10      4.54    <-- DIS
     916       2.07776351       2.07776351       2.415E-10      4.55    <-- DIS
     917       2.07776351       2.07776351       2.415E-10      4.55    <-- DIS
     918       2.07776351       2.07776351       2.415E-10      4.56    <-- DIS
     919       2.07776351       2.07776351       2.415E-10      4.56    <-- DIS
     920       2.07776351       2.07776351       2.415E-10      4.57    <-- DIS
     921       2.07776351       2.07776351       2.415E-10      4.57    <-- DIS
     922       2.07776351       2.07776351       2.415E-10      4.58    <-- DIS
     923       2.07776351       2.07776351       2.415E-10      4.58    <-- DIS
     924       2.07776351       2.07776351       2.415E-10      4.59    <-- DIS
     925       2.07776351       2.07776351       2.415E-10      4.59    <-- DIS
     926       2.07776351       2.07776351       2.415E-10      4.60    <-- DIS
     927       2.07776351       2.07776351       2.415E-10      4.60    <-- DIS
     928       2.07776351       2.07776351       2.415E-10      4.61    <-- DIS
     929       2.07776351       2.07776351       2.415E-10      4.61    <-- DIS
     930       2.07776351       2.07776351       2.415E-10      4.62    <-- DIS
     931       2.07776351       2.07776351       2.415E-10      4.62    <-- DIS
     932       2.07776351       2.07776351       2.415E-10      4.63    <-- DIS
     933       2.07776351       2.07776351       2.415E-10      4.63    <-- DIS
     934       2.07776351       2.07776351       2.415E-10      4.64    <-- DIS
     935       2.07776351       2.07776351       2.415E-10      4.64    <-- DIS
     936       2.07776351       2.07776351       2.415E-10      4.65    <-- DIS
     937       2.07776351       2.07776351       2.415E-10      4.65    <-- DIS
     938       2.07776351       2.07776351       2.415E-10      4.66    <-- DIS
     939       2.07776351       2.07776351       2.415E-10      4.66    <-- DIS
     940       2.07776351       2.07776351       2.415E-10      4.67    <-- DIS
     941       2.07776351       2.07776351       2.415E-10      4.67    <-- DIS
     942       2.07776351       2.07776351       2.415E-10      4.68    <-- DIS
     943       2.07776351       2.07776351       2.415E-10      4.68    <-- DIS
     944       2.07776351       2.07776351       2.415E-10      4.69    <-- DIS
     945       2.07776351       2.07776351       2.415E-10      4.69    <-- DIS
     946       2.07776351       2.07776351       2.415E-10      4.70    <-- DIS
     947       2.07776351       2.07776351       2.415E-10      4.70    <-- DIS
     948       2.07776351       2.07776351       2.415E-10      4.71    <-- DIS
     949       2.07776351       2.07776351       2.415E-10      4.71    <-- DIS
     950       2.07776351       2.07776351       2.415E-10      4.72    <-- DIS
     951       2.07776351       2.07776351       2.415E-10      4.72    <-- DIS
     952       2.07776351       2.07776351       2.415E-10      4.73    <-- DIS
     953       2.07776351       2.07776351       2.415E-10      4.73    <-- DIS
     954       2.07776351       2.07776351       2.415E-10      4.74    <-- DIS
     955       2.07776351       2.07776351       2.415E-10      4.74    <-- DIS
     956       2.07776351       2.07776351       2.415E-10      4.75    <-- DIS
     957       2.07776351       2.07776351       2.415E-10      4.76    <-- DIS
     958       2.07776351       2.07776351       2.415E-10      4.76    <-- DIS
     959       2.07776351       2.07776351       2.415E-10      4.77    <-- DIS
     960       2.07776351       2.07776351       2.415E-10      4.77    <-- DIS
     961       2.07776351       2.07776351       2.415E-10      4.78    <-- DIS
     962       2.07776351       2.07776351       2.415E-10      4.78    <-- DIS
     963       2.07776351       2.07776351       2.415E-10      4.79    <-- DIS
     964       2.07776351       2.07776351       2.415E-10      4.79    <-- DIS
     965       2.07776351       2.07776351       2.415E-10      4.80    <-- DIS
     966       2.07776351       2.07776351       2.415E-10      4.80    <-- DIS
     967       2.07776351       2.07776351       2.415E-10      4.81    <-- DIS
     968       2.07776351       2.07776351       2.415E-10      4.81    <-- DIS
     969       2.07776351       2.07776351       2.415E-10      4.82    <-- DIS
     970       2.07776351       2.07776351       2.415E-10      4.82    <-- DIS
     971       2.07776351       2.07776351       2.415E-10      4.83    <-- DIS
     972       2.07776351       2.07776351       2.415E-10      4.83    <-- DIS
     973       2.07776351       2.07776351       2.415E-10      4.84    <-- DIS
     974       2.07776351       2.07776351       2.415E-10      4.84    <-- DIS
     975       2.07776351       2.07776351       2.415E-10      4.85    <-- DIS
     976       2.07776351       2.07776351       2.415E-10      4.85    <-- DIS
     977       2.07776351       2.07776351       2.415E-10      4.86    <-- DIS
     978       2.07776351       2.07776351       2.415E-10      4.86    <-- DIS
     979       2.07776351       2.07776351       2.415E-10      4.87    <-- DIS
     980       2.07776351       2.07776351       2.415E-10      4.87    <-- DIS
     981       2.07776351       2.07776351       2.415E-10      4.88    <-- DIS
     982       2.07776351       2.07776351       2.415E-10      4.89    <-- DIS
     983       2.07776351       2.07776351       2.415E-10      4.89    <-- DIS
     984       2.07776351       2.07776351       2.415E-10      4.89    <-- DIS
     985       2.07776351       2.07776351       2.415E-10      4.90    <-- DIS
     986       2.07776351       2.07776351       2.415E-10      4.90    <-- DIS
     987       2.07776351       2.07776351       2.415E-10      4.91    <-- DIS
     988       2.07776351       2.07776351       2.415E-10      4.91    <-- DIS
     989       2.07776351       2.07776351       2.415E-10      4.92    <-- DIS
     990       2.07776351       2.07776351       2.415E-10      4.92    <-- DIS
     991       2.07776351       2.07776351       2.415E-10      4.93    <-- DIS
     992       2.07776351       2.07776351       2.415E-10      4.93    <-- DIS
     993       2.07776351       2.07776351       2.415E-10      4.94    <-- DIS
     994       2.07776351       2.07776351       2.415E-10      4.94    <-- DIS
     995       2.07776351       2.07776351       2.415E-10      4.95    <-- DIS
     996       2.07776351       2.07776351       2.415E-10      4.95    <-- DIS
     997       2.07776351       2.07776351       2.415E-10      4.96    <-- DIS
     998       2.07776351       2.07776351       2.415E-10      4.97    <-- DIS
     999       2.07776351       2.07776351       2.415E-10      4.97    <-- DIS
    1000       2.07776351       2.07776351       2.415E-10      4.98    <-- DIS

     <<< Warning: Maximum number of disentanglement iterations reached >>>
          <<< Disentanglement convergence criteria not satisfied >>>

        Final Omega_I     2.07776351 (Ang^2)

 +----------------------------------------------------------------------------+

 Time to disentangle bands      4.973 (sec)

 Writing checkpoint file svo.chk... done


 *------------------------------- WANNIERISE ---------------------------------*
 +--------------------------------------------------------------------+<-- CONV
 | Iter  Delta Spread     RMS Gradient      Spread (Ang^2)      Time  |<-- CONV
 +--------------------------------------------------------------------+<-- CONV

 ------------------------------------------------------------------------------
 Initial State
  WF centre and spread    1  (  1.929280,  1.929280,  0.000000 )     2.07776366
  Sum of centres and spreads (  1.929280,  1.929280,  0.000000 )     2.07776366

      0     0.208E+01     0.0000000000        2.0777635123       4.98  <-- CONV
        O_D=      0.0000000 O_OD=      0.0000000 O_TOT=      2.0777635 <-- SPRD
 ------------------------------------------------------------------------------
 Cycle:      1
  WF centre and spread    1  (  1.929280,  1.929280,  0.000000 )     2.07776366
  Sum of centres and spreads (  1.929280,  1.929280,  0.000000 )     2.07776366

      1     0.000E+00     0.0000000669        2.0777635123       4.98  <-- CONV
        O_D=      0.0000000 O_OD=      0.0000000 O_TOT=      2.0777635 <-- SPRD
 Delta: O_D= -0.9571659E-17 O_OD=  0.0000000E+00 O_TOT=  0.0000000E+00 <-- DLTA
 ------------------------------------------------------------------------------
 Cycle:      2
  WF centre and spread    1  (  1.929280,  1.929280,  0.000000 )     2.07776366
  Sum of centres and spreads (  1.929280,  1.929280,  0.000000 )     2.07776366

      2     0.000E+00     0.0000000634        2.0777635123       4.98  <-- CONV
        O_D=      0.0000000 O_OD=      0.0000000 O_TOT=      2.0777635 <-- SPRD
 Delta: O_D= -0.1633311E-16 O_OD=  0.0000000E+00 O_TOT=  0.0000000E+00 <-- DLTA
 ------------------------------------------------------------------------------
 Cycle:      3
  WF centre and spread    1  (  1.929280,  1.929280,  0.000000 )     2.07776366
  Sum of centres and spreads (  1.929280,  1.929280,  0.000000 )     2.07776366

      3     0.000E+00     0.0000000571        2.0777635123       4.98  <-- CONV
        O_D=      0.0000000 O_OD=      0.0000000 O_TOT=      2.0777635 <-- SPRD
 Delta: O_D= -0.1832616E-16 O_OD=  0.0000000E+00 O_TOT=  0.0000000E+00 <-- DLTA
 ------------------------------------------------------------------------------
 Cycle:      4
  WF centre and spread    1  (  1.929280,  1.929280,  0.000000 )     2.07776365
  Sum of centres and spreads (  1.929280,  1.929280,  0.000000 )     2.07776365

      4     0.000E+00     0.0000000494        2.0777635123       4.98  <-- CONV
        O_D=      0.0000000 O_OD=      0.0000000 O_TOT=      2.0777635 <-- SPRD
 Delta: O_D= -0.1652157E-16 O_OD=  0.0000000E+00 O_TOT=  0.0000000E+00 <-- DLTA
 ------------------------------------------------------------------------------
 Cycle:      5
  WF centre and spread    1  (  1.929280,  1.929280,  0.000000 )     2.07776365
  Sum of centres and spreads (  1.929280,  1.929280,  0.000000 )     2.07776365

      5     0.000E+00     0.0000000417        2.0777635123       4.98  <-- CONV
        O_D=      0.0000000 O_OD=      0.0000000 O_TOT=      2.0777635 <-- SPRD
 Delta: O_D= -0.1317122E-16 O_OD=  0.0000000E+00 O_TOT=  0.0000000E+00 <-- DLTA
 ------------------------------------------------------------------------------

             <<<     Delta < 1.000E-12  over  5 iterations     >>>
             <<< Wannierisation convergence criteria satisfied >>>

 Final State
  WF centre and spread    1  (  1.929280,  1.929280,  0.000000 )     2.07776365
  Sum of centres and spreads (  1.929280,  1.929280,  0.000000 )     2.07776365

         Spreads (Ang^2)       Omega I      =     2.077763512
        ================       Omega D      =     0.000000000
                               Omega OD     =     0.000000000
    Final Spread (Ang^2)       Omega Total  =     2.077763512
 ------------------------------------------------------------------------------
 Time for wannierise            0.006 (sec)

 Writing checkpoint file svo.chk... done

 *---------------------------------------------------------------------------*
 |                               PLOTTING                                    |
 *---------------------------------------------------------------------------*


 Calculating interpolated band-structure

 Time to calculate interpolated band structure       0.009 (sec)

 Time for plotting              0.071 (sec)
 Total Execution Time           6.297 (sec)

 *===========================================================================*
 |                             TIMING INFORMATION                            |
 *===========================================================================*
 |    Tag                                                Ncalls      Time (s)|
 |---------------------------------------------------------------------------|
 |kmesh: get                                        :         1         1.102|
 |overlap: allocate                                 :         1         0.000|
 |overlap: read                                     :         1         0.077|
 |dis: main                                         :         1         4.973|
 |wann: main                                        :         1         0.006|
 |plot: main                                        :         1         0.071|
 *---------------------------------------------------------------------------*

 All done: wannier90 exiting
